# vtk DataFile Version 2.0
2D-ADE data file 
ASCII
DATASET RECTILINEAR_GRID
DIMENSIONS 128 128 1
X_COORDINATES 128 int
0 1 2 3 4 5 6 7 8 9 10 11 12 13 14 15 16 17 18 19 20 21 22 23 24 25 26 27 28 29 30 31 32 33 34 35 36 37 38 39 40 41 42 43 44 45 46 47 48 49 50 51 52 53 54 55 56 57 58 59 60 61 62 63 64 65 66 67 68 69 70 71 72 73 74 75 76 77 78 79 80 81 82 83 84 85 86 87 88 89 90 91 92 93 94 95 96 97 98 99 100 101 102 103 104 105 106 107 108 109 110 111 112 113 114 115 116 117 118 119 120 121 122 123 124 125 126 127 
Y_COORDINATES 128 int
0 1 2 3 4 5 6 7 8 9 10 11 12 13 14 15 16 17 18 19 20 21 22 23 24 25 26 27 28 29 30 31 32 33 34 35 36 37 38 39 40 41 42 43 44 45 46 47 48 49 50 51 52 53 54 55 56 57 58 59 60 61 62 63 64 65 66 67 68 69 70 71 72 73 74 75 76 77 78 79 80 81 82 83 84 85 86 87 88 89 90 91 92 93 94 95 96 97 98 99 100 101 102 103 104 105 106 107 108 109 110 111 112 113 114 115 116 117 118 119 120 121 122 123 124 125 126 127 
Z_COORDINATES 1 int
0
POINT_DATA 16384 
SCALARS temperature double 1
LOOKUP_TABLE default
1.650457e-06 
1.584960e-06 
1.513203e-06 
1.436274e-06 
1.355297e-06 
1.271407e-06 
1.185722e-06 
1.099320e-06 
1.013218e-06 
9.283528e-07 
8.455689e-07 
7.656038e-07 
6.890834e-07 
6.165170e-07 
5.482981e-07 
4.847073e-07 
4.259179e-07 
3.720043e-07 
3.229519e-07 
2.786681e-07 
2.389947e-07 
2.037195e-07 
1.725883e-07 
1.453169e-07 
1.216014e-07 
1.011276e-07 
8.357965e-08 
6.864716e-08 
5.603080e-08 
4.544690e-08 
3.663076e-08 
2.933884e-08 
2.334996e-08 
1.846573e-08 
1.451026e-08 
1.132929e-08 
8.789019e-09 
6.774527e-09 
5.188112e-09 
3.947503e-09 
2.984071e-09 
2.241097e-09 
1.672122e-09 
1.239432e-09 
9.126768e-10 
6.676440e-10 
4.851817e-10 
3.502694e-10 
2.512258e-10 
1.790442e-10 
1.268399e-10 
8.939868e-11 
6.281072e-11 
4.417974e-11 
3.139446e-11 
2.295340e-11 
1.783445e-11 
1.540276e-11 
1.535169e-11 
1.767389e-11 
2.266039e-11 
3.092803e-11 
4.347653e-11 
6.177856e-11 
8.790754e-11 
1.247099e-10 
1.760296e-10 
2.469948e-10 
3.443784e-10 
4.770429e-10 
6.564854e-10 
8.974939e-10 
1.218929e-09 
1.644643e-09 
2.204544e-09 
2.935810e-09 
3.884257e-09 
5.105845e-09 
6.668313e-09 
8.652904e-09 
1.115615e-08 
1.429164e-08 
1.819173e-08 
2.300908e-08 
2.891789e-08 
3.611479e-08 
4.481912e-08 
5.527266e-08 
6.773839e-08 
8.249844e-08 
9.985082e-08 
1.201050e-07 
1.435764e-07 
1.705792e-07 
2.014181e-07 
2.363789e-07 
2.757179e-07 
3.196507e-07 
3.683399e-07 
4.218832e-07 
4.803015e-07 
5.435273e-07 
6.113953e-07 
6.836334e-07 
7.598572e-07 
8.395663e-07 
9.221441e-07 
1.006862e-06 
1.092883e-06 
1.179279e-06 
1.265038e-06 
1.349086e-06 
1.430308e-06 
1.507570e-06 
1.579746e-06 
1.645746e-06 
1.704538e-06 
1.755181e-06 
1.796845e-06 
1.828835e-06 
1.850610e-06 
1.861799e-06 
1.862210e-06 
1.851835e-06 
1.830852e-06 
1.799619e-06 
1.758664e-06 
1.708670e-06 
1.907745e-06 
1.831935e-06 
1.748895e-06 
1.659885e-06 
1.566205e-06 
1.469167e-06 
1.370064e-06 
1.270144e-06 
1.170581e-06 
1.072459e-06 
9.767533e-07 
8.843157e-07 
7.958687e-07 
7.120005e-07 
6.331647e-07 
5.596845e-07 
4.917591e-07 
4.294735e-07 
3.728097e-07 
3.216599e-07 
2.758399e-07 
2.351037e-07 
1.991570e-07 
1.676705e-07 
1.402925e-07 
1.166595e-07 
9.640606e-08 
7.917332e-08 
6.461519e-08 
5.240377e-08 
4.223318e-08 
3.382201e-08 
2.691474e-08 
2.128223e-08 
1.672135e-08 
1.305400e-08 
1.012569e-08 
7.803794e-09 
5.975548e-09 
4.546020e-09 
3.436036e-09 
2.580166e-09 
1.924831e-09 
1.426539e-09 
1.050300e-09 
7.682027e-10 
5.581730e-10 
4.029016e-10 
2.889301e-10 
2.058827e-10 
1.458301e-10 
1.027675e-10 
7.219341e-11 
5.077397e-11 
3.607942e-11 
2.638235e-11 
2.050748e-11 
1.772554e-11 
1.768546e-11 
2.038115e-11 
2.615076e-11 
3.570851e-11 
5.021085e-11 
7.136072e-11 
1.015555e-10 
1.440862e-10 
2.033972e-10 
2.854183e-10 
3.979808e-10 
5.513334e-10 
7.587718e-10 
1.037399e-09 
1.409027e-09 
1.901247e-09 
2.548649e-09 
3.394242e-09 
4.491024e-09 
5.903730e-09 
7.710724e-09 
1.000600e-08 
1.290122e-08 
1.652783e-08 
2.103895e-08 
2.661120e-08 
3.344614e-08 
4.177125e-08 
5.184035e-08 
6.393314e-08 
7.835392e-08 
9.542908e-08 
1.155034e-07 
1.389350e-07 
1.660887e-07 
1.973278e-07 
2.330049e-07 
2.734505e-07 
3.189610e-07 
3.697856e-07 
4.261122e-07 
4.880534e-07 
5.556331e-07 
6.287728e-07 
7.072806e-07 
7.908414e-07 
8.790098e-07 
9.712064e-07 
1.066717e-06 
1.164698e-06 
1.264182e-06 
1.364093e-06 
1.463261e-06 
1.560442e-06 
1.654347e-06 
1.743664e-06 
1.827092e-06 
1.903367e-06 
1.971298e-06 
2.029798e-06 
2.077906e-06 
2.114820e-06 
2.139915e-06 
2.152765e-06 
2.153147e-06 
2.141055e-06 
2.116696e-06 
2.080485e-06 
2.033036e-06 
1.975139e-06 
2.454969e-06 
2.357211e-06 
2.250161e-06 
2.135442e-06 
2.014732e-06 
1.889720e-06 
1.762072e-06 
1.633392e-06 
1.505195e-06 
1.378873e-06 
1.255682e-06 
1.136715e-06 
1.022902e-06 
9.149973e-07 
8.135828e-07 
7.190722e-07 
6.317197e-07 
5.516324e-07 
4.787850e-07 
4.130367e-07 
3.541489e-07 
3.018032e-07 
2.556195e-07 
2.151731e-07 
1.800101e-07 
1.496621e-07 
1.236586e-07 
1.015373e-07 
8.285267e-08 
6.718280e-08 
5.413417e-08 
4.334485e-08 
3.448636e-08 
2.726414e-08 
2.141716e-08 
1.671662e-08 
1.296410e-08 
9.989290e-09 
7.647441e-09 
5.816716e-09 
4.395524e-09 
3.299936e-09 
2.461238e-09 
1.823671e-09 
1.342382e-09 
9.816057e-10 
7.130615e-10 
5.145797e-10 
3.689271e-10 
2.628216e-10 
1.861153e-10 
1.311255e-10 
9.209473e-11 
6.476008e-11 
4.601593e-11 
3.365548e-11 
2.617845e-11 
2.265540e-11 
2.264120e-11 
2.613280e-11 
3.356875e-11 
4.587055e-11 
6.452813e-11 
9.173435e-11 
1.305756e-10 
1.852887e-10 
2.615954e-10 
3.671300e-10 
5.119763e-10 
7.093313e-10 
9.763174e-10 
1.334961e-09 
1.813359e-09 
2.447047e-09 
3.280590e-09 
4.369391e-09 
5.781732e-09 
7.601022e-09 
9.928233e-09 
1.288448e-08 
1.661366e-08 
2.128515e-08 
2.709629e-08 
3.427468e-08 
4.308010e-08 
5.380571e-08 
6.677862e-08 
8.235930e-08 
1.009399e-07 
1.229411e-07 
1.488071e-07 
1.789995e-07 
2.139881e-07 
2.542414e-07 
3.002132e-07 
3.523294e-07 
4.109716e-07 
4.764604e-07 
5.490375e-07 
6.288475e-07 
7.159201e-07 
8.101537e-07 
9.112999e-07 
1.018952e-06 
1.132534e-06 
1.251298e-06 
1.374325e-06 
1.500524e-06 
1.628649e-06 
1.757311e-06 
1.885003e-06 
2.010122e-06 
2.131006e-06 
2.245965e-06 
2.353321e-06 
2.451450e-06 
2.538817e-06 
2.614020e-06 
2.675827e-06 
2.723205e-06 
2.755353e-06 
2.771721e-06 
2.772029e-06 
2.756271e-06 
2.724717e-06 
2.677905e-06 
2.616627e-06 
2.541906e-06 
3.360543e-06 
3.226427e-06 
3.079609e-06 
2.922316e-06 
2.756846e-06 
2.585516e-06 
2.410607e-06 
2.234319e-06 
2.058722e-06 
1.885725e-06 
1.717042e-06 
1.554172e-06 
1.398383e-06 
1.250705e-06 
1.111932e-06 
9.826283e-07 
8.631371e-07 
7.536023e-07 
6.539861e-07 
5.640929e-07 
4.835933e-07 
4.120492e-07 
3.489382e-07 
2.936771e-07 
2.456434e-07 
2.041948e-07 
1.686864e-07 
1.384849e-07 
1.129803e-07 
9.159514e-08 
7.379076e-08 
5.907214e-08 
4.698999e-08 
3.714164e-08 
2.917028e-08 
2.276329e-08 
1.764961e-08 
1.359665e-08 
1.040677e-08 
7.913686e-09 
5.978756e-09 
4.487487e-09 
3.346163e-09 
2.478757e-09 
1.824131e-09 
1.333545e-09 
9.684704e-10 
6.987138e-10 
5.008101e-10 
3.566798e-10 
2.525135e-10 
1.778600e-10 
1.248890e-10 
8.780525e-11 
6.238825e-11 
4.564070e-11 
3.552664e-11 
3.078695e-11 
3.082198e-11 
3.563453e-11 
4.582989e-11 
6.267301e-11 
8.820600e-11 
1.254326e-10 
1.785799e-10 
2.534499e-10 
3.578787e-10 
5.023224e-10 
7.005927e-10 
9.707677e-10 
1.336305e-09 
1.827382e-09 
2.482497e-09 
3.350346e-09 
4.492001e-09 
5.983394e-09 
7.918113e-09 
1.041048e-08 
1.359892e-08 
1.764944e-08 
2.275933e-08 
2.916078e-08 
3.712435e-08 
4.696209e-08 
5.903015e-08 
7.373049e-08 
9.151158e-08 
1.128677e-07 
1.383364e-07 
1.684945e-07 
2.039510e-07 
2.453386e-07 
2.933014e-07 
3.484813e-07 
4.115005e-07 
4.829423e-07 
5.633294e-07 
6.531008e-07 
7.525870e-07 
8.619854e-07 
9.813357e-07 
1.110497e-06 
1.249128e-06 
1.396668e-06 
1.552329e-06 
1.715082e-06 
1.883664e-06 
2.056580e-06 
2.232120e-06 
2.408379e-06 
2.583288e-06 
2.754652e-06 
2.920189e-06 
3.077585e-06 
3.224540e-06 
3.358827e-06 
3.478347e-06 
3.581179e-06 
3.665637e-06 
3.730309e-06 
3.774100e-06 
3.796263e-06 
3.796415e-06 
3.774554e-06 
3.731055e-06 
3.666660e-06 
3.582460e-06 
3.479859e-06 
4.735055e-06 
4.545684e-06 
4.338440e-06 
4.116465e-06 
3.883002e-06 
3.641321e-06 
3.394638e-06 
3.146054e-06 
2.898487e-06 
2.654625e-06 
2.416883e-06 
2.187370e-06 
1.967870e-06 
1.759831e-06 
1.564367e-06 
1.382268e-06 
1.214016e-06 
1.059807e-06 
9.195840e-07 
7.930681e-07 
6.797913e-07 
5.791331e-07 
4.903547e-07 
4.126319e-07 
3.450858e-07 
2.868102e-07 
2.368952e-07 
1.944480e-07 
1.586087e-07 
1.285636e-07 
1.035542e-07 
8.288322e-08 
6.591832e-08 
5.209271e-08 
4.090440e-08 
3.191364e-08 
2.473926e-08 
1.905425e-08 
1.458086e-08 
1.108539e-08 
8.373110e-09 
6.283204e-09 
4.684091e-09 
3.469052e-09 
2.552289e-09 
1.865420e-09 
1.354406e-09 
9.769088e-10 
7.000330e-10 
4.984410e-10 
3.527850e-10 
2.484259e-10 
1.743997e-10 
1.225939e-10 
8.710317e-11 
6.373564e-11 
4.964626e-11 
4.307854e-11 
4.320047e-11 
5.002531e-11 
6.441259e-11 
8.814933e-11 
1.241163e-10 
1.765487e-10 
2.514050e-10 
3.568639e-10 
5.039715e-10 
7.074681e-10 
9.868262e-10 
1.367535e-09 
1.882672e-09 
2.574794e-09 
3.498196e-09 
4.721560e-09 
6.331031e-09 
8.433720e-09 
1.116165e-08 
1.467612e-08 
1.917241e-08 
2.488476e-08 
3.209155e-08 
4.112040e-08 
5.235309e-08 
6.622998e-08 
8.325364e-08 
1.039913e-07 
1.290759e-07 
1.592047e-07 
1.951366e-07 
2.376853e-07 
2.877103e-07 
3.461040e-07 
4.137756e-07 
4.916302e-07 
5.805457e-07 
6.813445e-07 
7.947637e-07 
9.214218e-07 
1.061784e-06 
1.216128e-06 
1.384508e-06 
1.566724e-06 
1.762291e-06 
1.970419e-06 
2.189990e-06 
2.419553e-06 
2.657322e-06 
2.901186e-06 
3.148730e-06 
3.397265e-06 
3.643869e-06 
3.885445e-06 
4.118774e-06 
4.340589e-06 
4.547648e-06 
4.736810e-06 
4.905114e-06 
5.049856e-06 
5.168659e-06 
5.259537e-06 
5.320950e-06 
5.351849e-06 
5.351701e-06 
5.320509e-06 
5.258807e-06 
5.167651e-06 
5.048582e-06 
4.903590e-06 
6.741348e-06 
6.471208e-06 
6.175653e-06 
5.859166e-06 
5.526369e-06 
5.181921e-06 
4.830407e-06 
4.476241e-06 
4.123580e-06 
3.776252e-06 
3.437690e-06 
3.110895e-06 
2.798403e-06 
2.502270e-06 
2.224078e-06 
1.964945e-06 
1.725551e-06 
1.506170e-06 
1.306717e-06 
1.126787e-06 
9.657105e-07 
8.225991e-07 
6.963975e-07 
5.859294e-07 
4.899411e-07 
4.071403e-07 
3.362305e-07 
2.759396e-07 
2.250433e-07 
1.823828e-07 
1.468788e-07 
1.175390e-07 
9.346389e-08 
7.384746e-08 
5.797597e-08 
4.522434e-08 
3.505088e-08 
2.699101e-08 
2.065017e-08 
1.569652e-08 
1.185357e-08 
8.893077e-09 
6.628317e-09 
4.907884e-09 
3.610084e-09 
2.637949e-09 
1.914871e-09 
1.380842e-09 
9.892511e-10 
7.042050e-10 
4.983023e-10 
3.508166e-10 
2.462285e-10 
1.730588e-10 
1.229542e-10 
8.998817e-11 
7.014127e-11 
6.093603e-11 
6.120490e-11 
7.097904e-11 
9.149088e-11 
1.252908e-10 
1.764848e-10 
2.511059e-10 
3.576412e-10 
5.077391e-10 
7.171327e-10 
1.006818e-09 
1.404533e-09 
1.946590e-09 
2.680115e-09 
3.665745e-09 
4.980847e-09 
6.723297e-09 
9.015861e-09 
1.201120e-08 
1.589749e-08 
2.090464e-08 
2.731101e-08 
3.545053e-08 
4.572004e-08 
5.858660e-08 
7.459451e-08 
9.437160e-08 
1.186344e-07 
1.481916e-07 
1.839455e-07 
2.268905e-07 
2.781083e-07 
3.387590e-07 
4.100679e-07 
4.933074e-07 
5.897731e-07 
7.007555e-07 
8.275053e-07 
9.711947e-07 
1.132873e-06 
1.313422e-06 
1.513503e-06 
1.733509e-06 
1.973517e-06 
2.233239e-06 
2.511982e-06 
2.808615e-06 
3.121543e-06 
3.448694e-06 
3.787520e-06 
4.135007e-06 
4.487711e-06 
4.841795e-06 
5.193095e-06 
5.537191e-06 
5.869495e-06 
6.185351e-06 
6.480139e-06 
6.749382e-06 
6.988865e-06 
7.194737e-06 
7.363613e-06 
7.492670e-06 
7.579721e-06 
7.623275e-06 
7.622584e-06 
7.577658e-06 
7.489268e-06 
7.358926e-06 
7.188838e-06 
6.981845e-06 
9.608809e-06 
9.223056e-06 
8.801119e-06 
8.349397e-06 
7.874490e-06 
7.383043e-06 
6.881597e-06 
6.376447e-06 
5.873518e-06 
5.378265e-06 
4.895580e-06 
4.429735e-06 
3.984339e-06 
3.562319e-06 
3.165920e-06 
2.796729e-06 
2.455706e-06 
2.143237e-06 
1.859190e-06 
1.602984e-06 
1.373655e-06 
1.169934e-06 
9.903100e-07 
8.331034e-07 
6.965234e-07 
5.787257e-07 
4.778607e-07 
3.921141e-07 
3.197402e-07 
2.590876e-07 
2.086179e-07 
1.669180e-07 
1.327065e-07 
1.048358e-07 
8.228991e-08 
6.417911e-08 
4.973268e-08 
3.828971e-08 
2.928904e-08 
2.225882e-08 
1.680597e-08 
1.260610e-08 
9.393877e-09 
6.954200e-09 
5.114227e-09 
3.736263e-09 
2.711550e-09 
1.954914e-09 
1.400214e-09 
9.965308e-10 
7.049990e-10 
4.962292e-10 
3.482216e-10 
2.447077e-10 
1.738536e-10 
1.272666e-10 
9.925934e-11 
8.633119e-11 
8.684061e-11 
1.008483e-10 
1.301225e-10 
1.783066e-10 
2.512589e-10 
3.575838e-10 
5.093829e-10 
7.232654e-10 
1.021665e-09 
1.434522e-09 
2.001393e-09 
2.774068e-09 
3.819762e-09 
5.224968e-09 
7.100051e-09 
9.584643e-09 
1.285389e-08 
1.712562e-08 
2.266831e-08 
2.981005e-08 
3.894805e-08 
5.055883e-08 
6.520875e-08 
8.356437e-08 
1.064025e-07 
1.346192e-07 
1.692371e-07 
2.114105e-07 
2.624271e-07 
3.237062e-07 
3.967917e-07 
4.833392e-07 
5.850975e-07 
7.038822e-07 
8.415423e-07 
9.999190e-07 
1.180797e-06 
1.385847e-06 
1.616568e-06 
1.874214e-06 
2.159729e-06 
2.473672e-06 
2.816148e-06 
3.186745e-06 
3.584470e-06 
4.007705e-06 
4.454170e-06 
4.920906e-06 
5.404269e-06 
5.899958e-06 
6.403051e-06 
6.908072e-06 
7.409074e-06 
7.899749e-06 
8.373549e-06 
8.823831e-06 
9.244001e-06 
9.627677e-06 
9.968846e-06 
1.026202e-05 
1.050237e-05 
1.068589e-05 
1.080945e-05 
1.087095e-05 
1.086932e-05 
1.080459e-05 
1.067787e-05 
1.049134e-05 
1.024814e-05 
9.952344e-06 
1.365263e-05 
1.310357e-05 
1.250317e-05 
1.186051e-05 
1.118499e-05 
1.048606e-05 
9.773027e-06 
9.054830e-06 
8.339893e-06 
7.635962e-06 
6.949988e-06 
6.288033e-06 
5.655217e-06 
5.055692e-06 
4.492637e-06 
3.968297e-06 
3.484027e-06 
3.040362e-06 
2.637107e-06 
2.273424e-06 
1.947939e-06 
1.658838e-06 
1.403970e-06 
1.180940e-06 
9.872020e-07 
8.201308e-07 
6.770961e-07 
5.555189e-07 
4.529180e-07 
3.669473e-07 
2.954215e-07 
2.363338e-07 
1.878649e-07 
1.483859e-07 
1.164548e-07 
9.080948e-08 
7.035658e-08 
5.415879e-08 
4.142043e-08 
3.147260e-08 
2.375823e-08 
1.781762e-08 
1.327489e-08 
9.825366e-09 
7.224301e-09 
5.276746e-09 
3.828757e-09 
2.759803e-09 
1.976306e-09 
1.406237e-09 
9.946380e-10 
6.999551e-10 
4.910921e-10 
3.450603e-10 
2.451424e-10 
1.794878e-10 
1.400713e-10 
1.219605e-10 
1.228532e-10 
1.428576e-10 
1.845016e-10 
2.529729e-10 
3.566034e-10 
5.076248e-10 
7.232382e-10 
1.027051e-09 
1.450949e-09 
2.037491e-09 
2.842911e-09 
3.940832e-09 
5.426818e-09 
7.423851e-09 
1.008886e-08 
1.362041e-08 
1.826759e-08 
2.434016e-08 
3.222002e-08 
4.237379e-08 
5.536646e-08 
7.187590e-08 
9.270772e-08 
1.188102e-07 
1.512883e-07 
1.914169e-07 
2.406508e-07 
3.006320e-07 
3.731928e-07 
4.603521e-07 
5.643062e-07 
6.874105e-07 
8.321528e-07 
1.001116e-06 
1.196929e-06 
1.422212e-06 
1.679501e-06 
1.971175e-06 
2.299361e-06 
2.665843e-06 
3.071960e-06 
3.518505e-06 
4.005626e-06 
4.532729e-06 
5.098400e-06 
5.700331e-06 
6.335274e-06 
6.999013e-06 
7.686362e-06 
8.391195e-06 
9.106507e-06 
9.824503e-06 
1.053672e-05 
1.123419e-05 
1.190759e-05 
1.254747e-05 
1.314445e-05 
1.368947e-05 
1.417398e-05 
1.459017e-05 
1.493119e-05 
1.519135e-05 
1.536621e-05 
1.545280e-05 
1.544961e-05 
1.535670e-05 
1.517567e-05 
1.490962e-05 
1.456304e-05 
1.414174e-05 
1.929892e-05 
1.852149e-05 
1.767155e-05 
1.676198e-05 
1.580607e-05 
1.481720e-05 
1.380851e-05 
1.279267e-05 
1.178158e-05 
1.078618e-05 
9.816300e-06 
8.880498e-06 
7.986003e-06 
7.138669e-06 
6.342981e-06 
5.602095e-06 
4.917913e-06 
4.291178e-06 
3.721600e-06 
3.207983e-06 
2.748370e-06 
2.340189e-06 
1.980390e-06 
1.665580e-06 
1.392153e-06 
1.156395e-06 
9.545850e-07 
7.830740e-07 
6.383548e-07 
5.171106e-07 
4.162534e-07 
3.329477e-07 
2.646240e-07 
2.089817e-07 
1.639849e-07 
1.278519e-07 
9.903961e-08 
7.622545e-08 
5.828693e-08 
4.428060e-08 
3.342087e-08 
2.505965e-08 
1.866708e-08 
1.381380e-08 
1.015495e-08 
7.415908e-09 
5.379859e-09 
3.877080e-09 
2.775833e-09 
1.974740e-09 
1.396460e-09 
9.825356e-10 
6.892293e-10 
4.842151e-10 
3.439934e-10 
2.519129e-10 
1.967042e-10 
1.714513e-10 
1.729408e-10 
2.013552e-10 
2.602886e-10 
3.570894e-10 
5.035457e-10 
7.169568e-10 
1.021646e-09 
1.450995e-09 
2.050094e-09 
2.879127e-09 
4.017619e-09 
5.569701e-09 
7.670542e-09 
1.049410e-08 
1.426238e-08 
1.925628e-08 
2.582822e-08 
3.441646e-08 
4.556138e-08 
5.992322e-08 
7.830152e-08 
1.016555e-07 
1.311253e-07 
1.680528e-07 
2.140020e-07 
2.707769e-07 
3.404366e-07 
4.253052e-07 
5.279756e-07 
6.513054e-07 
7.984029e-07 
9.726016e-07 
1.177422e-06 
1.416519e-06 
1.693614e-06 
2.012412e-06 
2.376504e-06 
2.789252e-06 
3.253666e-06 
3.772268e-06 
4.346948e-06 
4.978827e-06 
5.668106e-06 
6.413942e-06 
7.214325e-06 
8.065986e-06 
8.964318e-06 
9.903349e-06 
1.087573e-05 
1.187279e-05 
1.288461e-05 
1.390014e-05 
1.490742e-05 
1.589373e-05 
1.684590e-05 
1.775055e-05 
1.859442e-05 
1.936467e-05 
2.004922e-05 
2.063704e-05 
2.111845e-05 
2.148538e-05 
2.173162e-05 
2.185294e-05 
2.184724e-05 
2.171464e-05 
2.145740e-05 
2.107992e-05 
2.058861e-05 
1.999167e-05 
2.711686e-05 
2.602272e-05 
2.482680e-05 
2.354722e-05 
2.220269e-05 
2.081202e-05 
1.939368e-05 
1.796548e-05 
1.654414e-05 
1.514505e-05 
1.378199e-05 
1.246699e-05 
1.121018e-05 
1.001978e-05 
8.902071e-06 
7.861470e-06 
6.900628e-06 
6.020572e-06 
5.220872e-06 
4.499834e-06 
3.854692e-06 
3.281815e-06 
2.776907e-06 
2.335193e-06 
1.951594e-06 
1.620887e-06 
1.337839e-06 
1.097321e-06 
8.944031e-07 
7.244256e-07 
5.830503e-07 
4.662953e-07 
3.705524e-07 
2.925923e-07 
2.295575e-07 
1.789478e-07 
1.385985e-07 
1.066544e-07 
8.154132e-08 
6.193650e-08 
4.673865e-08 
3.503946e-08 
2.609645e-08 
1.930811e-08 
1.419137e-08 
1.036167e-08 
7.515432e-09 
5.415071e-09 
3.876217e-09 
2.757016e-09 
1.949273e-09 
1.371229e-09 
9.617244e-10 
6.755691e-10 
4.799223e-10 
3.515225e-10 
2.746373e-10 
2.396245e-10 
2.420246e-10 
2.821338e-10 
3.650307e-10 
5.010603e-10 
7.068009e-10 
1.006572e-09 
1.434561e-09 
2.037687e-09 
2.879330e-09 
4.044084e-09 
5.643745e-09 
7.824704e-09 
1.077700e-08 
1.474521e-08 
2.004152e-08 
2.706091e-08 
3.629898e-08 
4.837210e-08 
6.404023e-08 
8.423203e-08 
1.100720e-07 
1.429095e-07 
1.843482e-07 
2.362757e-07 
3.008921e-07 
3.807352e-07 
4.787016e-07 
5.980606e-07 
7.424601e-07 
9.159198e-07 
1.122812e-06 
1.367827e-06 
1.655916e-06 
1.992220e-06 
2.381974e-06 
2.830388e-06 
3.342512e-06 
3.923073e-06 
4.576302e-06 
5.305744e-06 
6.114053e-06 
7.002798e-06 
7.972258e-06 
9.021238e-06 
1.014690e-05 
1.134465e-05 
1.260798e-05 
1.392848e-05 
1.529582e-05 
1.669778e-05 
1.812040e-05 
1.954814e-05 
2.096415e-05 
2.235056e-05 
2.368882e-05 
2.496013e-05 
2.614583e-05 
2.722788e-05 
2.818928e-05 
2.901454e-05 
2.969008e-05 
3.020456e-05 
3.054925e-05 
3.071824e-05 
3.070862e-05 
3.052056e-05 
3.015728e-05 
2.962500e-05 
2.893275e-05 
2.809210e-05 
3.785903e-05 
3.632903e-05 
3.465708e-05 
3.286852e-05 
3.098949e-05 
2.904625e-05 
2.706465e-05 
2.506953e-05 
2.308425e-05 
2.113029e-05 
1.922688e-05 
1.739079e-05 
1.563618e-05 
1.397446e-05 
1.241441e-05 
1.096214e-05 
9.621350e-06 
8.393435e-06 
7.277775e-06 
6.271977e-06 
5.372159e-06 
4.573235e-06 
3.869187e-06 
3.253336e-06 
2.718581e-06 
2.257622e-06 
1.863144e-06 
1.527986e-06 
1.245263e-06 
1.008469e-06 
8.115481e-07 
6.489446e-07 
5.156244e-07 
4.070826e-07 
3.193346e-07 
2.488940e-07 
1.927431e-07 
1.482962e-07 
1.133597e-07 
8.609070e-08 
6.495508e-08 
4.868783e-08 
3.625511e-08 
2.681952e-08 
1.970870e-08 
1.438747e-08 
1.043346e-08 
7.516180e-09 
5.379213e-09 
3.825312e-09 
2.704068e-09 
1.901843e-09 
1.333652e-09 
9.367159e-10 
6.654249e-10 
4.874857e-10 
3.810714e-10 
3.328221e-10 
3.365869e-10 
3.928328e-10 
5.086890e-10 
6.986253e-10 
9.858072e-10 
1.404203e-09 
2.001562e-09 
2.843409e-09 
4.018258e-09 
5.644266e-09 
7.877581e-09 
1.092269e-08 
1.504507e-08 
2.058642e-08 
2.798287e-08 
3.778632e-08 
5.068923e-08 
6.755292e-08 
8.943938e-08 
1.176464e-07 
1.537455e-07 
1.996224e-07 
2.575186e-07 
3.300723e-07 
4.203586e-07 
5.319247e-07 
6.688191e-07 
8.356117e-07 
1.037401e-06 
1.279806e-06 
1.568938e-06 
1.911352e-06 
2.313969e-06 
2.783973e-06 
3.328681e-06 
3.955373e-06 
4.671105e-06 
5.482482e-06 
6.395413e-06 
7.414845e-06 
8.544486e-06 
9.786518e-06 
1.114132e-05 
1.260722e-05 
1.418024e-05 
1.585392e-05 
1.761919e-05 
1.946427e-05 
2.137470e-05 
2.333339e-05 
2.532081e-05 
2.731525e-05 
2.929315e-05 
3.122951e-05 
3.309842e-05 
3.487360e-05 
3.652898e-05 
3.803935e-05 
3.938099e-05 
4.053226e-05 
4.147418e-05 
4.219097e-05 
4.267045e-05 
4.290439e-05 
4.288876e-05 
4.262383e-05 
4.211415e-05 
4.136844e-05 
4.039936e-05 
3.922311e-05 
5.251143e-05 
5.038603e-05 
4.806392e-05 
4.558031e-05 
4.297150e-05 
4.027395e-05 
3.752353e-05 
3.475470e-05 
3.199987e-05 
2.928882e-05 
2.664823e-05 
2.410133e-05 
2.166771e-05 
1.936322e-05 
1.719996e-05 
1.518640e-05 
1.332761e-05 
1.162550e-05 
1.007918e-05 
8.685295e-06 
7.438433e-06 
6.331512e-06 
5.356165e-06 
4.503107e-06 
3.762475e-06 
3.124132e-06 
2.577926e-06 
2.113917e-06 
1.722555e-06 
1.394815e-06 
1.122301e-06 
8.973105e-07 
7.128650e-07 
5.627221e-07 
4.413607e-07 
3.439515e-07 
2.663150e-07 
2.048705e-07 
1.565813e-07 
1.188961e-07 
8.969199e-08 
6.721850e-08 
5.004541e-08 
3.701446e-08 
2.719585e-08 
1.984962e-08 
1.439189e-08 
1.036591e-08 
7.417346e-09 
5.273703e-09 
3.727226e-09 
2.620985e-09 
1.837644e-09 
1.290550e-09 
9.167620e-10 
6.717365e-10 
5.253841e-10 
4.593119e-10 
4.650888e-10 
5.434354e-10 
7.042911e-10 
9.677625e-10 
1.366007e-09 
1.946161e-09 
2.774475e-09 
3.941862e-09 
5.571133e-09 
7.826235e-09 
1.092385e-08 
1.514774e-08 
2.086633e-08 
2.855388e-08 
3.881572e-08 
5.241792e-08 
7.032171e-08 
9.372276e-08 
1.240954e-07 
1.632413e-07 
2.133425e-07 
2.770172e-07 
3.573774e-07 
4.580864e-07 
5.834140e-07 
7.382858e-07 
9.283234e-07 
1.159873e-06 
1.440013e-06 
1.776547e-06 
2.177961e-06 
2.653355e-06 
3.212341e-06 
3.864893e-06 
4.621169e-06 
5.491277e-06 
6.485009e-06 
7.611534e-06 
8.879051e-06 
1.029442e-05 
1.186279e-05 
1.358716e-05 
1.546807e-05 
1.750317e-05 
1.968692e-05 
2.201034e-05 
2.446082e-05 
2.702198e-05 
2.967371e-05 
3.239229e-05 
3.515059e-05 
3.791843e-05 
4.066309e-05 
4.334987e-05 
4.594278e-05 
4.840533e-05 
5.070135e-05 
5.279584e-05 
5.465589e-05 
5.625149e-05 
5.755631e-05 
5.854849e-05 
5.921115e-05 
5.953292e-05 
5.950826e-05 
5.913759e-05 
5.842728e-05 
5.738950e-05 
5.604184e-05 
5.440686e-05 
7.235471e-05 
6.942175e-05 
6.621802e-05 
6.279211e-05 
5.919404e-05 
5.547413e-05 
5.168181e-05 
4.786460e-05 
4.406716e-05 
4.033051e-05 
3.669138e-05 
3.318178e-05 
2.982866e-05 
2.665381e-05 
2.367385e-05 
2.090043e-05 
1.834047e-05 
1.599656e-05 
1.386743e-05 
1.194841e-05 
1.023200e-05 
8.708411e-06 
7.366087e-06 
6.192207e-06 
5.173163e-06 
4.294968e-06 
3.543627e-06 
2.905437e-06 
2.367234e-06 
1.916586e-06 
1.541927e-06 
1.232646e-06 
9.791362e-07 
7.728030e-07 
6.060470e-07 
4.722224e-07 
3.655784e-07 
2.811893e-07 
2.148782e-07 
1.631369e-07 
1.230464e-07 
9.220057e-08 
6.863370e-08 
5.075418e-08 
3.728457e-08 
2.720842e-08 
1.972389e-08 
1.420380e-08 
1.016173e-08 
7.223632e-09 
5.104426e-09 
3.588801e-09 
2.515806e-09 
1.766606e-09 
1.254911e-09 
9.196736e-10 
7.196825e-10 
6.297787e-10 
6.384793e-10 
7.468743e-10 
9.687277e-10 
1.331792e-09 
1.880413e-09 
2.679568e-09 
3.820570e-09 
5.428723e-09 
7.673302e-09 
1.078029e-08 
1.504837e-08 
2.086874e-08 
2.874932e-08 
3.934398e-08 
5.348735e-08 
7.223576e-08 
9.691471e-08 
1.291731e-07 
1.710440e-07 
2.250124e-07 
2.940876e-07 
3.818807e-07 
4.926842e-07 
6.315509e-07 
8.043703e-07 
1.017936e-06 
1.280004e-06 
1.599326e-06 
1.985669e-06 
2.449794e-06 
3.003408e-06 
3.659064e-06 
4.430018e-06 
5.330028e-06 
6.373102e-06 
7.573182e-06 
8.943770e-06 
1.049751e-05 
1.224569e-05 
1.419779e-05 
1.636086e-05 
1.873908e-05 
2.133313e-05 
2.413976e-05 
2.715132e-05 
3.035540e-05 
3.373456e-05 
3.726621e-05 
4.092260e-05 
4.467095e-05 
4.847384e-05 
5.228962e-05 
5.607316e-05 
5.977657e-05 
6.335022e-05 
6.674378e-05 
6.990738e-05 
7.279277e-05 
7.535458e-05 
7.755144e-05 
7.934712e-05 
8.071149e-05 
8.162135e-05 
8.206107e-05 
8.202308e-05 
8.150802e-05 
8.052476e-05 
7.909014e-05 
7.722850e-05 
7.497098e-05 
9.903799e-05 
9.501753e-05 
9.062680e-05 
8.593238e-05 
8.100283e-05 
7.590707e-05 
7.071281e-05 
6.548509e-05 
6.028507e-05 
5.516887e-05 
5.018677e-05 
4.538253e-05 
4.079300e-05 
3.644794e-05 
3.237005e-05 
2.857522e-05 
2.507284e-05 
2.186642e-05 
1.895412e-05 
1.632952e-05 
1.398230e-05 
1.189901e-05 
1.006378e-05 
8.459046e-06 
7.066143e-06 
5.865912e-06 
4.839181e-06 
3.967185e-06 
3.231903e-06 
2.616317e-06 
2.104600e-06 
1.682236e-06 
1.336082e-06 
1.054385e-06 
8.267538e-07 
6.441020e-07 
4.985693e-07 
3.834244e-07 
2.929598e-07 
2.223829e-07 
1.677067e-07 
1.256454e-07 
9.351481e-08 
6.914228e-08 
5.078421e-08 
3.705352e-08 
2.685618e-08 
1.933662e-08 
1.383142e-08 
9.830549e-09 
6.945320e-09 
4.882251e-09 
3.422003e-09 
2.402667e-09 
1.706706e-09 
1.250999e-09 
9.794663e-10 
8.579149e-10 
8.708067e-10 
1.019762e-09 
1.323712e-09 
1.820709e-09 
2.571498e-09 
3.665059e-09 
5.226416e-09 
7.427135e-09 
1.049899e-08 
1.475141e-08 
2.059339e-08 
2.856067e-08 
3.934885e-08 
5.385346e-08 
7.321769e-08 
9.888847e-08 
1.326815e-07 
1.768555e-07 
2.341958e-07 
3.081068e-07 
4.027114e-07 
5.229572e-07 
6.747254e-07 
8.649394e-07 
1.101669e-06 
1.394224e-06 
1.753229e-06 
2.190679e-06 
2.719956e-06 
3.355806e-06 
4.114269e-06 
5.012546e-06 
6.068800e-06 
7.301881e-06 
8.730981e-06 
1.037520e-05 
1.225303e-05 
1.438178e-05 
1.677694e-05 
1.945145e-05 
2.241498e-05 
2.567321e-05 
2.922708e-05 
3.307210e-05 
3.719775e-05 
4.158702e-05 
4.621597e-05 
5.105362e-05 
5.606189e-05 
6.119587e-05 
6.640424e-05 
7.162993e-05 
7.681105e-05 
8.188202e-05 
8.677480e-05 
9.142046e-05 
9.575067e-05 
9.969937e-05 
1.032044e-04 
1.062092e-04 
1.086641e-04 
1.105280e-04 
1.117691e-04 
1.123661e-04 
1.123087e-04 
1.115980e-04 
1.102460e-04 
1.082761e-04 
1.057216e-04 
1.026252e-04 
1.346670e-04 
1.291924e-04 
1.232147e-04 
1.168247e-04 
1.101157e-04 
1.031814e-04 
9.611402e-05 
8.900195e-05 
8.192837e-05 
7.496961e-05 
6.819397e-05 
6.166093e-05 
5.542053e-05 
4.951318e-05 
4.396965e-05 
3.881145e-05 
3.405130e-05 
2.969386e-05 
2.573655e-05 
2.217058e-05 
1.898182e-05 
1.615194e-05 
1.365931e-05 
1.147999e-05 
9.588580e-06 
7.958990e-06 
6.565136e-06 
5.381492e-06 
4.383549e-06 
3.548168e-06 
2.853833e-06 
2.280814e-06 
1.811253e-06 
1.429180e-06 
1.120481e-06 
8.728161e-07 
6.755105e-07 
5.194260e-07 
3.968151e-07 
3.011734e-07 
2.270909e-07 
1.701095e-07 
1.265885e-07 
9.358111e-08 
6.872308e-08 
5.013392e-08 
3.633069e-08 
2.615388e-08 
1.870456e-08 
1.329178e-08 
9.389069e-09 
6.598992e-09 
4.624579e-09 
3.246663e-09 
2.306189e-09 
1.690712e-09 
1.324412e-09 
1.161121e-09 
1.179945e-09 
1.383257e-09 
1.796922e-09 
2.472763e-09 
3.493443e-09 
4.979999e-09 
7.102489e-09 
1.009426e-08 
1.427056e-08 
2.005229e-08 
2.799581e-08 
3.882992e-08 
5.350096e-08 
7.322736e-08 
9.956456e-08 
1.344813e-07 
1.804485e-07 
2.405397e-07 
3.185456e-07 
4.190991e-07 
5.478116e-07 
7.114169e-07 
9.179196e-07 
1.176743e-06 
1.498872e-06 
1.896977e-06 
2.385522e-06 
2.980833e-06 
3.701124e-06 
4.566469e-06 
5.598701e-06 
6.821232e-06 
8.258782e-06 
9.937009e-06 
1.188203e-05 
1.411984e-05 
1.667560e-05 
1.957287e-05 
2.283270e-05 
2.647270e-05 
3.050602e-05 
3.494035e-05 
3.977694e-05 
4.500965e-05 
5.062414e-05 
5.659719e-05 
6.289620e-05 
6.947894e-05 
7.629356e-05 
8.327887e-05 
9.036499e-05 
9.747421e-05 
1.045223e-04 
1.114199e-04 
1.180745e-04 
1.243922e-04 
1.302801e-04 
1.356483e-04 
1.404123e-04 
1.444951e-04 
1.478292e-04 
1.503588e-04 
1.520406e-04 
1.528459e-04 
1.527608e-04 
1.517867e-04 
1.499403e-04 
1.472534e-04 
1.437715e-04 
1.395529e-04 
1.819075e-04 
1.745021e-04 
1.664179e-04 
1.577775e-04 
1.487070e-04 
1.393332e-04 
1.297806e-04 
1.201688e-04 
1.106101e-04 
1.012076e-04 
9.205347e-05 
8.322806e-05 
7.479885e-05 
6.682033e-05 
5.933399e-05 
5.236874e-05 
4.594167e-05 
4.005893e-05 
3.471698e-05 
2.990379e-05 
2.560024e-05 
2.178144e-05 
1.841813e-05 
1.547790e-05 
1.292640e-05 
1.072835e-05 
8.848492e-06 
7.252334e-06 
5.906763e-06 
4.780522e-06 
3.844555e-06 
3.072224e-06 
2.439419e-06 
1.924587e-06 
1.508681e-06 
1.175050e-06 
9.092970e-07 
6.990950e-07 
5.339966e-07 
4.052319e-07 
3.055078e-07 
2.288156e-07 
1.702490e-07 
1.258377e-07 
9.239664e-08 
6.739307e-08 
4.882993e-08 
3.514604e-08 
2.513129e-08 
1.785570e-08 
1.261081e-08 
8.861903e-09 
6.209511e-09 
4.358887e-09 
3.096181e-09 
2.270264e-09 
1.779291e-09 
1.561322e-09 
1.588444e-09 
1.864085e-09 
2.423340e-09 
3.336325e-09 
4.714779e-09 
6.722268e-09 
9.588567e-09 
1.362897e-08 
1.926944e-08 
2.707871e-08 
3.780864e-08 
5.244409e-08 
7.226406e-08 
9.891533e-08 
1.345003e-07 
1.816802e-07 
2.437949e-07 
3.249996e-07 
4.304188e-07 
5.663160e-07 
7.402778e-07 
9.614083e-07 
1.240531e-06 
1.590386e-06 
2.025827e-06 
2.563986e-06 
3.224422e-06 
4.029209e-06 
5.002976e-06 
6.172868e-06 
7.568404e-06 
9.221242e-06 
1.116481e-05 
1.343378e-05 
1.606349e-05 
1.908906e-05 
2.254452e-05 
2.646169e-05 
3.086904e-05 
3.579033e-05 
4.124334e-05 
4.723842e-05 
5.377723e-05 
6.085142e-05 
6.844156e-05 
7.651620e-05 
8.503119e-05 
9.392939e-05 
1.031406e-04 
1.125821e-04 
1.221594e-04 
1.317672e-04 
1.412917e-04 
1.506121e-04 
1.596032e-04 
1.681383e-04 
1.760915e-04 
1.833415e-04 
1.897739e-04 
1.952850e-04 
1.997835e-04 
2.031940e-04 
2.054583e-04 
2.065375e-04 
2.064131e-04 
2.050871e-04 
2.025824e-04 
1.989420e-04 
1.942276e-04 
1.885181e-04 
2.441059e-04 
2.341550e-04 
2.232939e-04 
2.116875e-04 
1.995051e-04 
1.869170e-04 
1.740904e-04 
1.611857e-04 
1.483538e-04 
1.357329e-04 
1.234467e-04 
1.116029e-04 
1.002919e-04 
8.958684e-05 
7.954313e-05 
7.019949e-05 
6.157865e-05 
5.368878e-05 
4.652495e-05 
4.007090e-05 